 Gaussian 09, Revision D.01,
 Gaussian 09:  ES64L-G09RevD.01 24-Apr-2013

 ---------------------------
 #B3LYP/6-31g* opt=QST2 freq
 ---------------------------

 -------------------------------------------------------------------
 finding transition state using qst2,geometry of reactant goes first
 -------------------------------------------------------------------
 Symbolic Z-matrix:
 Charge =  0 Multiplicity = 1

 -------
 product
 -------
 Symbolic Z-matrix:
 Charge =  0 Multiplicity = 1

 SCF Done:  E(RB3LYP) =  -215.768062684     A.U. after   14 cycles
 SCF Done:  E(RB3LYP) =  -215.773324294     A.U. after   14 cycles
 SCF Done:  E(RB3LYP) =  -215.771898040     A.U. after   14 cycles
 SCF Done:  E(RB3LYP) =  -215.775278531     A.U. after   15 cycles
 SCF Done:  E(RB3LYP) =  -215.771085885     A.U. after   15 cycles
 SCF Done:  E(RB3LYP) =  -215.773505695     A.U. after   14 cycles
 SCF Done:  E(RB3LYP) =  -215.777080969     A.U. after   14 cycles
 SCF Done:  E(RB3LYP) =  -215.778225937     A.U. after   12 cycles
 SCF Done:  E(RB3LYP) =  -215.778432276     A.U. after   12 cycles
 SCF Done:  E(RB3LYP) =  -215.778452480     A.U. after   10 cycles
 SCF Done:  E(RB3LYP) =  -215.778470081     A.U. after   10 cycles
 SCF Done:  E(RB3LYP) =  -215.778474021     A.U. after   10 cycles
 Optimization completed.
    -- Stationary point found.
 Normal termination of Gaussian 09 at Tue Oct 20 01:59:59 2015.

 --------------------------------------------------------------------
 #N Geom=AllCheck Guess=TCheck SCRF=Check GenChk RB3LYP/6-31G(d) Freq
 --------------------------------------------------------------------

 Structure from the checkpoint file:  "/scratch/hollas/GAUSS_qst2.com_385487/Gau-31553.chk"
 -------------------------------------------------------------------
 finding transition state using qst2,geometry of reactant goes first
 -------------------------------------------------------------------
 Charge =  0 Multiplicity = 1

                         Standard orientation:
 ---------------------------------------------------------------------
 Center     Atomic      Atomic             Coordinates (Angstroms)
 Number     Number       Type             X           Y           Z
 ---------------------------------------------------------------------
      1          6           0        1.181155    0.000287    0.409240
      2          6           0        0.300447    0.686862   -0.392556
      3          6           0        0.300518   -0.687326   -0.391616
      4          1           0        1.725993    0.001943    1.341677
      5          1           0        0.007994    1.581987   -0.916342
      6          1           0        0.010247   -1.583362   -0.915120
      7          9           0       -1.381884    0.000055    0.304375
 ---------------------------------------------------------------------

 SCF Done:  E(RB3LYP) =  -215.778474021     A.U. after    1 cycles

 The electronic state is 1-A.
 Alpha  occ. eigenvalues --  -24.55534 -10.27295 -10.27228 -10.23332  -1.02181
 Alpha  occ. eigenvalues --   -0.92838  -0.61406  -0.60695  -0.54951  -0.42580
 Alpha  occ. eigenvalues --   -0.37946  -0.37247  -0.28801  -0.26597  -0.23165
 Alpha virt. eigenvalues --   -0.01345  -0.00615   0.10691   0.11751   0.12330
 Alpha virt. eigenvalues --    0.17055   0.27711   0.29385   0.45083   0.51382
 Alpha virt. eigenvalues --    0.53218   0.55304   0.60748   0.61019   0.69183

 Mulliken charges:
               1
     1  C   -0.168539
     2  C    0.044258
     3  C    0.044110
     4  H    0.175745
     5  H    0.182183
     6  H    0.182108
     7  F   -0.459865
 Sum of Mulliken charges =   0.00000

 Dipole moment (field-independent basis, Debye):
    X=              3.1416    Y=              0.0002    Z=             -1.3062  Tot=              3.4024
 Quadrupole moment (field-independent basis, Debye-Ang):
   XX=            -26.1107   YY=            -18.5359   ZZ=            -20.2634
   XY=             -0.0007   XZ=              2.3991   YZ=              0.0011

  Exact polarizability:  36.246   0.000  28.878   5.141   0.002  23.351
 Approx polarizability:  79.123  -0.002  43.691   7.022  -0.003  33.633

 ******    1 imaginary frequencies (negative Signs) ******

                      1                      2                      3
                      A                      A                      A
 Frequencies --   -680.8027               344.0587               490.6265
 Red. masses --     10.3354                 3.6322                 8.0409
 Frc consts  --      2.8224                 0.2533                 1.1404
 IR Inten    --      2.1452                23.3784               195.0338

                      4                      5                      6
                      A                      A                      A
 Frequencies --    717.4944               856.5659               867.1876
 Red. masses --      1.2141                 1.2498                 1.1664
 Frc consts  --      0.3682                 0.5403                 0.5168
 IR Inten    --     50.9589                 1.5623                48.5027

                      7                      8                      9
                      A                      A                      A
 Frequencies --    955.1664               978.2210              1023.3869
 Red. masses --      1.1498                 1.1029                 1.3999
 Frc consts  --      0.6180                 0.6218                 0.8638
 IR Inten    --      7.2644                10.8865                 0.5373

                     10                     11                     12
                      A                      A                      A
 Frequencies --   1227.8357              1304.8950              1643.4155
 Red. masses --      3.8653                 6.9430                 4.9000
 Frc consts  --      3.4333                 6.9654                 7.7973
 IR Inten    --     30.1703                 8.8510                40.3409

                     13                     14                     15
                      A                      A                      A
 Frequencies --   3290.2644              3322.3820              3353.3393
 Red. masses --      1.0963                 1.0945                 1.1430
 Frc consts  --      6.9924                 7.1180                 7.5730
 IR Inten    --      0.9734                 0.8076                 0.1434

 - Thermochemistry -
 -------------------
 Temperature   298.150 Kelvin.  Pressure   1.00000 Atm.
 Atom     1 has atomic number  6 and mass  12.00000

 Molecular mass:    58.02188 amu.
 Principal axes and moments of inertia in atomic units:
                           1         2         3
     Eigenvalues --    97.07106 246.32046 266.23237
           X            0.99842  -0.00002   0.05621
           Y            0.00001   1.00000   0.00034
           Z           -0.05621  -0.00034   0.99842
 This molecule is an asymmetric top.
 Rotational symmetry number  1.
 Rotational temperatures (Kelvin)      0.89227     0.35163     0.32533
 Rotational constants (GHZ):          18.59196     7.32680     6.77882
    1 imaginary frequencies ignored.
 Zero-point vibrational energy     121868.6 (Joules/Mol)
                                   29.12729 (Kcal/Mol)
 Warning -- explicit consideration of   2 degrees of freedom as
           vibrations may cause significant error
 Vibrational temperatures:    495.02   705.90  1032.31  1232.41  1247.69
          (Kelvin)           1374.27  1407.44  1472.42  1766.58  1877.45
                             2364.51  4733.95  4780.16  4824.70

 Zero-point correction=                           0.046417 (Hartree/Particle)
 Thermal correction to Energy=                    0.050226
 Thermal correction to Enthalpy=                  0.051170
 Thermal correction to Gibbs Free Energy=         0.020609
 Sum of electronic and zero-point Energies=           -215.732057
 Sum of electronic and thermal Energies=              -215.728248
 Sum of electronic and thermal Enthalpies=            -215.727304
 Sum of electronic and thermal Free Energies=         -215.757865

                     E (Thermal)             CV                S
                      KCal/Mol        Cal/Mol-Kelvin    Cal/Mol-Kelvin
 Total                   31.517             12.285             64.320
 Electronic               0.000              0.000              0.000
 Translational            0.889              2.981             38.095
 Rotational               0.889              2.981             23.369
 Vibrational             29.740              6.324              2.855
 Vibration     1          0.723              1.587              1.193
 Vibration     2          0.846              1.271              0.682

 Normal termination of Gaussian 09 at Tue Oct 20 02:00:12 2015.
