 Gaussian 09, Revision D.01,
 Gaussian 09:  ES64L-G09RevD.01 24-Apr-2013

 ---------------------------------------------------------------
 #B3LYP/6-31g* TD=(Singlets,Root=1,NStates=5) GFINPUT IOP(6/7=3)
 ---------------------------------------------------------------

 ------------------------
 sample tddft calculation
 ------------------------
 Symbolic Z-matrix:
 Charge =  0 Multiplicity = 1

                         Standard orientation:
 ---------------------------------------------------------------------
 Center     Atomic      Atomic             Coordinates (Angstroms)
 Number     Number       Type             X           Y           Z
 ---------------------------------------------------------------------
      1          8           0        0.000000    0.000000    0.000000
      2          1           0        0.000000    0.000000    1.000000
      3          1           0        0.000000    0.000000   -1.000000
 ---------------------------------------------------------------------

 SCF Done:  E(RB3LYP) =  -76.3444725614     A.U. after    8 cycles

 Excitation energies and oscillator strengths:

 Excited state symmetry could not be determined.
 Excited State   1:      Singlet-?Sym    6.1294 eV  202.28 nm  f=0.0027  <S**2>=0.000
       4 ->  6         0.70775
 This state for optimization and/or second-order correction.
 Total Energy, E(TD-HF/TD-KS) =  -76.1192226653
 Copying the excited state density for this state as the 1-particle RhoCI density.

 Excited state symmetry could not be determined.
 Excited State   2:      Singlet-?Sym    6.1294 eV  202.28 nm  f=0.0027  <S**2>=0.000
       5 ->  6         0.70775

 Excited state symmetry could not be determined.
 Excited State   3:      Singlet-?Sym    9.3769 eV  132.22 nm  f=0.0000  <S**2>=0.000
       5 ->  7         0.70289

 Excited state symmetry could not be determined.
 Excited State   4:      Singlet-?Sym    9.3769 eV  132.22 nm  f=0.0000  <S**2>=0.000
       4 ->  7         0.70289

 Excited State   5:      Singlet-SGU   15.3106 eV   80.98 nm  f=0.6672  <S**2>=0.000
       3 ->  6         0.70632

 The electronic state is 1-SGG.
 Alpha  occ. eigenvalues --  -19.09342  -0.93418  -0.55597  -0.25816  -0.25816
 Alpha virt. eigenvalues --    0.02189   0.15683   0.62119   0.91387   0.91387
 Alpha virt. eigenvalues --    0.96552   1.11074   1.50000   1.72920   1.72920
 Alpha virt. eigenvalues --    1.84984   1.84984   2.69219   3.60872

 Mulliken charges:
               1
     1  O   -0.935294
     2  H    0.467647
     3  H    0.467647
 Sum of Mulliken charges =   0.00000

 Dipole moment (field-independent basis, Debye):
    X=              0.0000    Y=              0.0000    Z=              0.0000  Tot=              0.0000
 Quadrupole moment (field-independent basis, Debye-Ang):
   XX=             -7.2736   YY=             -7.2736   ZZ=             -1.5229
   XY=              0.0000   XZ=              0.0000   YZ=              0.0000

 Normal termination of Gaussian 09 at Tue Oct 20 01:56:58 2015.
