User input:
--------------------------------------------------------------

$molecule
0 1
O    1.2209454916000000        1.1009983115999999       -5.4668213781999997
H    1.2098227510999999        1.9586117950999999       -5.0135938952999997
H    1.4626306595000000        1.3666656952000000       -6.3821352127999997
$end

$rem
JOBTYPE OPT
exchange pbe
correlation pbe
BASIS  6-31g*
max_scf_cycles    100
$end

--------------------------------------------------------------

   10     -76.3223663578      2.57E-09 Convergence criterion met
 Total energy in the final basis set = -76.3223663578
    8     -76.3224873806      3.42E-09 Convergence criterion met
 Total energy in the final basis set = -76.3224873806

             Standard Nuclear Orientation (Angstroms)
    I     Atom           X                Y                Z
 ----------------------------------------------------------------
    1      O       0.0011527980    -0.1179333958     0.0000000000
    2      H      -0.7507418925     0.5054336552     0.0000000000
    3      H       0.7751837945     0.4775326023     0.0000000000
 ----------------------------------------------------------------

    7     -76.3224891154      2.34E-09 Convergence criterion met
 Total energy in the final basis set = -76.3224891154
 Final energy is   -76.3224891153675
 **  OPTIMIZATION CONVERGED  **

             Orbital Energies (a.u.) and Symmetries
 --------------------------------------------------------------

 Alpha MOs, Restricted
 -- Occupied --
-18.758  -0.904  -0.457  -0.313  -0.227
  1 A'    2 A'    3 A'    4 A'    1 A"

 Beta MOs, Restricted
 -- Occupied --
-18.758  -0.904  -0.457  -0.313  -0.227
  1 A'    2 A'    3 A'    4 A'    1 A"

          Ground-State Mulliken Net Atomic Charges

     Atom                 Charge (a.u.)
  ----------------------------------------
      1 O                    -0.759081
      2 H                     0.379530
      3 H                     0.379551
  ----------------------------------------
  Sum of atomic charges =     0.000000

                    Cartesian Multipole Moments
 -----------------------------------------------------------------
    Charge (ESU x 10^10)
                 0.0000
    Dipole Moment (Debye)
         X       0.0377      Y       2.0680      Z       0.0000
       Tot       2.0684
    Quadrupole Moments (Debye-Ang)
        XX      -4.3516     XY      -0.0229     YY      -5.9716
        XZ       0.0000     YZ       0.0000     ZZ      -7.2358

 Total job time:  2.79s(wall), 1.24s(cpu)
        *  Thank you very much for using Q-Chem.  Have a nice day.  *
