 Gaussian 09, Revision D.01,
 Gaussian 09:  ES64L-G09RevD.01 24-Apr-2013

 ---------------------------------------------
 #HF/aug-cc-pVTZ Symmetry=None OPT IOP(6/81=3)
 ---------------------------------------------

 ------------
 neutral neon
 ------------
 Symbolic Z-matrix:
 Charge =  0 Multiplicity = 1

 SCF Done:  E(RHF) =  -128.533272820     A.U. after    7 cycles

 Alpha  occ. eigenvalues --  -32.77902  -1.93341  -0.85121  -0.85121  -0.85121
 Alpha virt. eigenvalues --    0.24081   0.24081   0.24081   0.24250   1.13173
 Alpha virt. eigenvalues --    1.13173   1.13173   1.13173   1.13173   1.35452
 Alpha virt. eigenvalues --    1.35452   1.35452   1.98645   3.60906   3.60906

 Mulliken charges:
               1
     1  Ne   0.000000
 Sum of Mulliken charges =   0.00000

 Dipole moment (field-independent basis, Debye):
    X=              0.0000    Y=              0.0000    Z=              0.0000  Tot=              0.0000
 Quadrupole moment (field-independent basis, Debye-Ang):
   XX=             -4.2166   YY=             -4.2166   ZZ=             -4.2166
   XY=              0.0000   XZ=              0.0000   YZ=              0.0000

 Optimization completed.
    -- Stationary point found.

                          Input orientation:
 ---------------------------------------------------------------------
 Center     Atomic      Atomic             Coordinates (Angstroms)
 Number     Number       Type             X           Y           Z
 ---------------------------------------------------------------------
      1         10           0        0.000000    0.000000    0.763276
 ---------------------------------------------------------------------

 Normal termination of Gaussian 09 at Tue Feb 13 16:17:04 2018.
