 Gaussian 09, Revision D.01,
 Gaussian 09:  ES64L-G09RevD.01 24-Apr-2013

 ----------------------------------------------------------------------
 #LC-wPBE/aug-cc-pVTZ SP POP=FULL IOP(6/81=3) IOP(3/107=0512000000,3/10
 8=0512000000)
 ----------------------------------------------------------------------

 ------------------------------------------------
 water dimer, printing kinetic energy of orbitals
 ------------------------------------------------
 Symbolic Z-matrix:
 Charge =  0 Multiplicity = 1

                         Standard orientation:
 ---------------------------------------------------------------------
 Center     Atomic      Atomic             Coordinates (Angstroms)
 Number     Number       Type             X           Y           Z
 ---------------------------------------------------------------------
      1          8           0        0.000000    0.116965    0.000000
      2          1           0        0.769482   -0.461812    0.000000
      3          1           0       -0.769482   -0.473904    0.000000
 ---------------------------------------------------------------------

 SCF Done:  E(RLC-wPBE) =  -76.4299653354     A.U. after    9 cycles

 The electronic state is 1-A'.
 Alpha  occ. eigenvalues --  -19.03166  -1.19248  -0.68653  -0.54274  -0.46983
 Alpha virt. eigenvalues --    0.02710   0.04695   0.13031   0.15625   0.16793
 Alpha virt. eigenvalues --    0.17698   0.21851   0.23939   0.26045   0.29481
 Alpha virt. eigenvalues --    0.30248   0.36284   0.40988   0.43421   0.56850

 Mulliken charges:
               1
     1  O   -0.330772
     2  H    0.161372
     3  H    0.169400
 Sum of Mulliken charges =   0.00000

 Dipole moment (field-independent basis, Debye):
    X=              0.0028    Y=             -1.9429    Z=              0.0000  Tot=              1.9429
 Quadrupole moment (field-independent basis, Debye-Ang):
   XX=             -4.2810   YY=             -6.3811   ZZ=             -7.6880
   XY=              0.0211   XZ=              0.0000   YZ=              0.0000

 Normal termination of Gaussian 09 at Mon Feb  5 08:55:20 2018.
