 Gaussian 16, Revision C.01,
 Gaussian 16:  ES64L-G16RevC.01  3-Jul-2019

 ----------------------------------------------------------
 #p B3LYP/aug-cc-pVTZ IOp(3/33=1,6/80=1) SCF=Tight Pop=Full
 ----------------------------------------------------------

 ---------------------------------------------
 Kr atom BEB calculation with kinetic energies
 ---------------------------------------------
 Symbolic Z-matrix:
 Charge =  0 Multiplicity = 1

                         Standard orientation:
 ---------------------------------------------------------------------
 Center     Atomic      Atomic             Coordinates (Angstroms)
 Number     Number       Type             X           Y           Z
 ---------------------------------------------------------------------
      1         36           0        0.000000    0.000000    0.000000
 ---------------------------------------------------------------------

 SCF Done:  E(RB3LYP) =  -2753.83708152     A.U. after    7 cycles

 The electronic state is 1-A1G.
 Alpha  occ. eigenvalues -- -512.78202 -67.15167 -60.72591 -60.72591 -60.72591
 Alpha  occ. eigenvalues --   -9.65819  -7.35954  -7.35954  -7.35954  -3.23754
 Alpha  occ. eigenvalues --   -3.23754  -3.23754  -3.23754  -3.23754  -0.89207
 Alpha  occ. eigenvalues --   -0.38524  -0.38524  -0.38524
 Alpha virt. eigenvalues --    0.02054   0.05607   0.05607   0.05607   0.18288
 Alpha virt. eigenvalues --    0.18288   0.18288   0.18288   0.18288   0.42076
 Alpha virt. eigenvalues --    0.42076   0.42076   0.57060   0.65859   0.65859

 Mulliken charges:
               1
     1  Kr  -0.000000
 Sum of Mulliken charges =  -0.00000

 Dipole moment (field-independent basis, Debye):
    X=              0.0000    Y=              0.0000    Z=              0.0000  Tot=              0.0000
 Quadrupole moment (field-independent basis, Debye-Ang):
   XX=            -17.7783   YY=            -17.7783   ZZ=            -17.7783
   XY=             -0.0000   XZ=             -0.0000   YZ=             -0.0000

 Normal termination of Gaussian 16 at Wed Jul  9 12:54:42 2025.
