 Gaussian 16, Revision C.01,
 Gaussian 16:  ES64L-G16RevC.01  3-Jul-2019

 -------------------------------------------------------
 #p B3LYP/Def2TZVP IOp(3/33=1,6/80=1) SCF=Tight Pop=Full
 -------------------------------------------------------

 ---------------------------------------------
 Xe atom BEB calculation with kinetic energies
 ---------------------------------------------
 Symbolic Z-matrix:
 Charge =  0 Multiplicity = 1

                         Standard orientation:
 ---------------------------------------------------------------------
 Center     Atomic      Atomic             Coordinates (Angstroms)
 Number     Number       Type             X           Y           Z
 ---------------------------------------------------------------------
      1         54           0        0.000000    0.000000    0.000000
 ---------------------------------------------------------------------

 SCF Done:  E(RB3LYP) =  -329.466488995     A.U. after    8 cycles

 The electronic state is 1-A1G.
 Alpha  occ. eigenvalues --   -7.46774  -5.37532  -5.37532  -5.37532  -2.27314
 Alpha  occ. eigenvalues --   -2.27314  -2.27314  -2.27314  -2.27314  -0.79295
 Alpha  occ. eigenvalues --   -0.33889  -0.33889  -0.33889
 Alpha virt. eigenvalues --    0.18669   0.18669   0.18669   0.20777   0.20777
 Alpha virt. eigenvalues --    0.20777   0.20777   0.20777   0.32724   0.86738
 Alpha virt. eigenvalues --    0.86738   0.86738   0.86738   0.86738   0.86738

 Mulliken charges:
               1
     1  Xe  -0.000000
 Sum of Mulliken charges =  -0.00000

 Dipole moment (field-independent basis, Debye):
    X=              0.0000    Y=              0.0000    Z=              0.0000  Tot=              0.0000
 Quadrupole moment (field-independent basis, Debye-Ang):
   XX=            -26.4374   YY=            -26.4374   ZZ=            -26.4374
   XY=              0.0000   XZ=              0.0000   YZ=             -0.0000

 Normal termination of Gaussian 16 at Wed Jul  9 13:02:37 2025.
