                         Program Version 3.0.2 -  RELEASE  -
|  1> # COMMENTED TEMPLATE FOR ORCA JOBS
|  2> # KEYWORDS START WITH !
|  3>
|  4> # BP86 : DFT functional
|  5> # def2-SVP: basis set
|  6> # RI : Resolution of identity approximation, speeds up DFT calculations with pure functionals
|  7> # D3 : Grimme's dispersion correction
|  8> # TightSCF: strict convergence criteria for SCF
|  9> ! BP86 def2-SVP RI D3 TightSCF
| 10>
| 11>
| 12>
| 13> # geometry optimization with strict convergence criteria
| 14> ! TightOpt
| 15>
| 16> # analytical frequencies
| 17> ! Anfreq
| 18>
| 19> # number of processors (up to 8)
| 20> ! PAL2
| 21>
| 22> # GEOMETRY XYZ input
| 23> # first line: * xyz charge multiplicity
| 24>
| 25> * xyz 0 1
| 26>  O         -0.0000218309       -0.0660220264       -1.5099793198
| 27>  H          0.0000841166        0.8300419659       -1.8585417882
| 28>  H         -0.0001501717        0.0314438609       -0.4476371681
| 29> *
| 30>
| 31>
| 32>                          ****END OF INPUT****
 Total Charge           Charge          ....    0
 Multiplicity           Mult            ....    1
 Number of Electrons    NEL             ....   10
Dispersion correction           -0.000459926
FINAL SINGLE POINT ENERGY       -76.354272727082
Dispersion correction            ... done
Dispersion correction           -0.000459036
FINAL SINGLE POINT ENERGY       -76.361184931348
Dispersion correction            ... done
Dispersion correction           -0.000459061
FINAL SINGLE POINT ENERGY       -76.361217978187
Dispersion correction            ... done
Dispersion correction           -0.000459077
FINAL SINGLE POINT ENERGY       -76.361226700068
Dispersion correction            ... done
Dispersion correction           -0.000459079
FINAL SINGLE POINT ENERGY       -76.361226782706
Dispersion correction            ... done
                    ***********************HURRAY********************

CARTESIAN COORDINATES (ANGSTROEM)
---------------------------------
  O     -0.000027   -0.086796   -1.479708
  H      0.000079    0.826472   -1.821557
  H     -0.000140    0.055788   -0.514893

 Multiplicity           Mult            ....    1
 Number of Electrons    NEL             ....   10
 Basis Dimension        Dim             ....   24

ORBITAL ENERGIES
----------------

  NO   OCC          E(Eh)            E(eV)
   0   2.0000     -18.760510      -510.4994
   1   2.0000      -0.890413       -24.2294
   2   2.0000      -0.454823       -12.3764
   3   2.0000      -0.313163        -8.5216
   4   2.0000      -0.232195        -6.3184
   5   0.0000       0.029056         0.7906
   6   0.0000       0.106193         2.8897
   7   0.0000       0.507338        13.8054
   8   0.0000       0.571102        15.5405
   9   0.0000       0.862340        23.4655

MULLIKEN ATOMIC CHARGES
-----------------------
   0 O :   -0.296955
   1 H :    0.148338
   2 H :    0.148617
Sum of atomic charges:    0.0000000

LOEWDIN ATOMIC CHARGES
----------------------
   0 O :   -0.154543
   1 H :    0.077165
   2 H :    0.077378

  Mayer bond orders larger than 0.1
B(  0-O ,  1-H ) :   1.0081 B(  0-O ,  2-H ) :   1.0088

Dispersion correction           -0.000459079
FINAL SINGLE POINT ENERGY       -76.361226781401

DIPOLE MOMENT
-------------
                                X             Y             Z
Electronic contribution:     -0.00000      -0.20742      -0.12100
Nuclear contribution   :     -0.00001       0.87885       0.51853
                        -----------------------------------------
Total Dipole Moment    :     -0.00001       0.67143       0.39753
                        -----------------------------------------
Magnitude (a.u.)       :      0.78028
Magnitude (Debye)      :      1.98332

Dispersion correction in the Hessian             ... done   (      0.4 sec)

VIBRATIONAL FREQUENCIES
-----------------------

   0:         0.00 cm**-1
   1:         0.00 cm**-1
   2:         0.00 cm**-1
   3:         0.00 cm**-1
   4:         0.00 cm**-1
   5:         0.00 cm**-1
   6:      1608.81 cm**-1
   7:      3680.88 cm**-1
   8:      3779.46 cm**-1

IR SPECTRUM
-----------

 Mode    freq (cm**-1)   T**2         TX         TY         TZ
-------------------------------------------------------------------
   6:      1608.81   30.569956  ( -0.000032   4.766269   2.802255)
   7:      3680.88    3.777144  (  0.000008  -1.686733  -0.965441)
   8:      3779.46    0.426943  ( -0.000103  -0.282277   0.589290)

--------------------------
THERMOCHEMISTRY AT 298.15K
--------------------------

Temperature         ... 298.15 K
Pressure            ... 1.00 atm
Total Mass          ... 18.02 AMU

Throughout the following assumptions are being made:
  (1) The electronic state is orbitally nondegenerate
  (2) There are no thermally accessible electronically excited states
  (3) Hindered rotations indicated by low frequency modes) are not
      treated as such but are treated as vibrations and this may
      case some error
  (4) All equations used are the standard statistical mechanics
      equations for an ideal gas
  (5) All vibrations are strinctly harmonic

------------
INNER ENERGY
------------

The inner energy is: U= E(el) + E(ZPE) + E(vib) + E(rot) + E(trans)
    E(el)   - is the total energy from the electronic structure calculation
              = E(kin-el) + E(nuc-el) + E(el-el) + E(nuc-nuc)
    E(ZPE)  - the the zero temperature vibrational energy from the frequency calculation
    E(vib)  - the the finite temperature correction to E(ZPE) due to population
              of excietd vibrational states
    E(rot)  - is the rotational thermal energy
    E(trans)- is the translational thermal energy

Summary of contributions to the inner energy U:
Electronic energy                ...    -76.36122678 Eh
Zero point energy                ...      0.02066105 Eh      12.96 kcal/mol
Thermal vibrational correction   ...      0.00000312 Eh       0.00 kcal/mol
Thermal rotational correction    ...      0.00141627 Eh       0.89 kcal/mol
Thermal translational correction ...      0.00141627 Eh       0.89 kcal/mol
-----------------------------------------------------------------------
Total thermal energy                    -76.33773007 Eh

Summary of corrections to the electronic energy:
(perhaps to be used in another calculation)
Total thermal correction                  0.00283566 Eh       1.78 kcal/mol
Non-thermal (ZPE) correction              0.02066105 Eh      12.96 kcal/mol
-----------------------------------------------------------------------
Total correction                          0.02349671 Eh      14.74 kcal/mol

--------
ENTHALPY
--------

The enthalpy is H = U + kB*T
                kB is Boltzmann's constant
Total free energy                 ...    -76.33773007 Eh
Thermal Enthalpy correction       ...      0.00094421 Eh       0.59 kcal/mol
-----------------------------------------------------------------------
Total Enthalpy                    ...    -76.33678587 Eh

-------
ENTROPY
-------

The entropy contributions are T*S = T*(S(el)+S(vib)+S(rot)+S(trans)
     S(el)   - electronic entropy
     S(vib)  - vibrational entropy
     S(rot)  - rotational entropy
     S(trans)- translational entropy
The entropies will be listed as mutliplied by the temperature to get
units of energy

Electronic entropy                ...      0.00000000 Eh      0.00 kcal/mol
Vibrational entropy               ...      0.00000352 Eh      0.00 kcal/mol
Rotational entropy                ...      0.00464164 Eh      2.91 kcal/mol
Translational entropy             ...      0.01644380 Eh     10.32 kcal/mol
-----------------------------------------------------------------------
Final entropy term                ...      0.02108896 Eh     13.23 kcal/mol

CAUTION: The rotational entropy is not quite correctly treated here
         because it includes a symmetry number that is not yet correctly
         implemented in ORCA!
For a nonlinear molecule the correct rotational entropy is:
    S(rot) = R*(ln(qrot/sn)+1.5)
    R    = 8.31441 J/mol/K = 1.987191683e-3 kcal/mol/K
    qrot =   91.3463446
    sn is the rotational symmetry number. We have assumed 3 here
       if it is different for your molecule then you should correct
       the printed rotational entropy by manually evaluating the equation
       as given above

For convenience we print out the resulting values for sn=1 - 12:
 sn= 1  qrot/sn=      91.3463 T*S(rot)=     3.56 kcal/mol T*S(tot)=    13.88 kcal/mol
 sn= 2  qrot/sn=      45.6732 T*S(rot)=     3.15 kcal/mol T*S(tot)=    13.47 kcal/mol
 sn= 3  qrot/sn=      30.4488 T*S(rot)=     2.91 kcal/mol T*S(tot)=    13.23 kcal/mol
 sn= 4  qrot/sn=      22.8366 T*S(rot)=     2.74 kcal/mol T*S(tot)=    13.06 kcal/mol
 sn= 5  qrot/sn=      18.2693 T*S(rot)=     2.61 kcal/mol T*S(tot)=    12.93 kcal/mol
 sn= 6  qrot/sn=      15.2244 T*S(rot)=     2.50 kcal/mol T*S(tot)=    12.82 kcal/mol
 sn= 7  qrot/sn=      13.0495 T*S(rot)=     2.41 kcal/mol T*S(tot)=    12.73 kcal/mol
 sn= 8  qrot/sn=      11.4183 T*S(rot)=     2.33 kcal/mol T*S(tot)=    12.65 kcal/mol
 sn= 9  qrot/sn=      10.1496 T*S(rot)=     2.26 kcal/mol T*S(tot)=    12.58 kcal/mol
 sn=10  qrot/sn=       9.1346 T*S(rot)=     2.20 kcal/mol T*S(tot)=    12.52 kcal/mol
 sn=11  qrot/sn=       8.3042 T*S(rot)=     2.14 kcal/mol T*S(tot)=    12.46 kcal/mol
 sn=12  qrot/sn=       7.6122 T*S(rot)=     2.09 kcal/mol T*S(tot)=    12.41 kcal/mol

-------------------
GIBBS FREE ENTHALPY
-------------------

The Gibbs free enthalpy is G = H - T*S

Total enthalpy                    ...    -76.33678587 Eh
Total entropy correction          ...     -0.02108896 Eh    -13.23 kcal/mol
-----------------------------------------------------------------------
Final Gibbs free enthalpy         ...    -76.35787482 Eh

For completeness - the Gibbs free enthalpy minus the electronic energy
G-E(el)                           ...      0.00335196 Eh      2.10 kcal/mol

                             ****ORCA TERMINATED NORMALLY****
TOTAL RUN TIME: 0 days 0 hours 0 minutes 39 seconds 87 msec
